NaCl

512 atoms
2 atom types

0.0000000000000000e+00 22.5600000000 xlo xhi
0.0000000000000000e+00 22.5600000000 ylo yhi
0.0000000000000000e+00 22.5600000000 zlo zhi

Masses

1 35.453
2  22.989769

Atoms # charge

1 2 0.885 0.0000000000000000e+00 0.0000000000000000e+00 0.0000000000000000e+00 0 0 0
2 1 -0.885 2.8199999999999998e+00 0.0000000000000000e+00 0.0000000000000000e+00 0 0 0
3 2 0.885 0.0000000000000000e+00 2.8199999999999998e+00 2.8199999999999998e+00 0 0 0
4 1 -0.885 2.8199999999999998e+00 2.8199999999999998e+00 2.8199999999999998e+00 0 0 0
5 2 0.885 2.8199999999999998e+00 0.0000000000000000e+00 2.8199999999999998e+00 0 0 0
6 1 -0.885 0.0000000000000000e+00 0.0000000000000000e+00 2.8199999999999998e+00 0 0 0
7 2 0.885 2.8199999999999998e+00 2.8199999999999998e+00 0.0000000000000000e+00 0 0 0
8 1 -0.885 0.0000000000000000e+00 2.8199999999999998e+00 0.0000000000000000e+00 0 0 0
129 2 0.885 0.0000000000000000e+00 0.0000000000000000e+00 5.6399999999999997e+00 0 0 0
130 1 -0.885 2.8199999999999998e+00 0.0000000000000000e+00 5.6399999999999997e+00 0 0 0
135 2 0.885 2.8199999999999998e+00 2.8199999999999998e+00 5.6399999999999997e+00 0 0 0
136 1 -0.885 0.0000000000000000e+00 2.8199999999999998e+00 5.6399999999999997e+00 0 0 0
33 2 0.885 0.0000000000000000e+00 5.6399999999999997e+00 0.0000000000000000e+00 0 0 0
34 1 -0.885 2.8199999999999998e+00 5.6399999999999997e+00 0.0000000000000000e+00 0 0 0
37 2 0.885 2.8199999999999998e+00 5.6399999999999997e+00 2.8199999999999998e+00 0 0 0
38 1 -0.885 0.0000000000000000e+00 5.6399999999999997e+00 2.8199999999999998e+00 0 0 0
161 2 0.885 0.0000000000000000e+00 5.6399999999999997e+00 5.6399999999999997e+00 0 0 0
162 1 -0.885 2.8199999999999998e+00 5.6399999999999997e+00 5.6399999999999997e+00 0 0 0
9 2 0.885 5.6399999999999997e+00 0.0000000000000000e+00 0.0000000000000000e+00 0 0 0
11 2 0.885 5.6399999999999997e+00 2.8199999999999998e+00 2.8199999999999998e+00 0 0 0
14 1 -0.885 5.6399999999999997e+00 0.0000000000000000e+00 2.8199999999999998e+00 0 0 0
16 1 -0.885 5.6399999999999997e+00 2.8199999999999998e+00 0.0000000000000000e+00 0 0 0
137 2 0.885 5.6399999999999997e+00 0.0000000000000000e+00 5.6399999999999997e+00 0 0 0
144 1 -0.885 5.6399999999999997e+00 2.8199999999999998e+00 5.6399999999999997e+00 0 0 0
41 2 0.885 5.6399999999999997e+00 5.6399999999999997e+00 0.0000000000000000e+00 0 0 0
46 1 -0.885 5.6399999999999997e+00 5.6399999999999997e+00 2.8199999999999998e+00 0 0 0
169 2 0.885 5.6399999999999997e+00 5.6399999999999997e+00 5.6399999999999997e+00 0 0 0
10 1 -0.885 8.4599999999999991e+00 0.0000000000000000e+00 0.0000000000000000e+00 0 0 0
12 1 -0.885 8.4599999999999991e+00 2.8199999999999998e+00 2.8199999999999998e+00 0 0 0
13 2 0.885 8.4599999999999991e+00 0.0000000000000000e+00 2.8199999999999998e+00 0 0 0
15 2 0.885 8.4599999999999991e+00 2.8199999999999998e+00 0.0000000000000000e+00 0 0 0
138 1 -0.885 8.4599999999999991e+00 0.0000000000000000e+00 5.6399999999999997e+00 0 0 0
143 2 0.885 8.4599999999999991e+00 2.8199999999999998e+00 5.6399999999999997e+00 0 0 0
42 1 -0.885 8.4599999999999991e+00 5.6399999999999997e+00 0.0000000000000000e+00 0 0 0
45 2 0.885 8.4599999999999991e+00 5.6399999999999997e+00 2.8199999999999998e+00 0 0 0
170 1 -0.885 8.4599999999999991e+00 5.6399999999999997e+00 5.6399999999999997e+00 0 0 0
17 2 0.885 1.1279999999999999e+01 0.0000000000000000e+00 0.0000000000000000e+00 0 0 0
18 1 -0.885 1.4100000000000000e+01 0.0000000000000000e+00 0.0000000000000000e+00 0 0 0
19 2 0.885 1.1279999999999999e+01 2.8199999999999998e+00 2.8199999999999998e+00 0 0 0
20 1 -0.885 1.4100000000000000e+01 2.8199999999999998e+00 2.8199999999999998e+00 0 0 0
21 2 0.885 1.4100000000000000e+01 0.0000000000000000e+00 2.8199999999999998e+00 0 0 0
22 1 -0.885 1.1279999999999999e+01 0.0000000000000000e+00 2.8199999999999998e+00 0 0 0
23 2 0.885 1.4100000000000000e+01 2.8199999999999998e+00 0.0000000000000000e+00 0 0 0
24 1 -0.885 1.1279999999999999e+01 2.8199999999999998e+00 0.0000000000000000e+00 0 0 0
145 2 0.885 1.1279999999999999e+01 0.0000000000000000e+00 5.6399999999999997e+00 0 0 0
146 1 -0.885 1.4100000000000000e+01 0.0000000000000000e+00 5.6399999999999997e+00 0 0 0
151 2 0.885 1.4100000000000000e+01 2.8199999999999998e+00 5.6399999999999997e+00 0 0 0
152 1 -0.885 1.1279999999999999e+01 2.8199999999999998e+00 5.6399999999999997e+00 0 0 0
49 2 0.885 1.1279999999999999e+01 5.6399999999999997e+00 0.0000000000000000e+00 0 0 0
50 1 -0.885 1.4100000000000000e+01 5.6399999999999997e+00 0.0000000000000000e+00 0 0 0
53 2 0.885 1.4100000000000000e+01 5.6399999999999997e+00 2.8199999999999998e+00 0 0 0
54 1 -0.885 1.1279999999999999e+01 5.6399999999999997e+00 2.8199999999999998e+00 0 0 0
177 2 0.885 1.1279999999999999e+01 5.6399999999999997e+00 5.6399999999999997e+00 0 0 0
178 1 -0.885 1.4100000000000000e+01 5.6399999999999997e+00 5.6399999999999997e+00 0 0 0
25 2 0.885 1.6919999999999998e+01 0.0000000000000000e+00 0.0000000000000000e+00 0 0 0
26 1 -0.885 1.9739999999999998e+01 0.0000000000000000e+00 0.0000000000000000e+00 0 0 0
27 2 0.885 1.6919999999999998e+01 2.8199999999999998e+00 2.8199999999999998e+00 0 0 0
28 1 -0.885 1.9739999999999998e+01 2.8199999999999998e+00 2.8199999999999998e+00 0 0 0
29 2 0.885 1.9739999999999998e+01 0.0000000000000000e+00 2.8199999999999998e+00 0 0 0
30 1 -0.885 1.6919999999999998e+01 0.0000000000000000e+00 2.8199999999999998e+00 0 0 0
31 2 0.885 1.9739999999999998e+01 2.8199999999999998e+00 0.0000000000000000e+00 0 0 0
32 1 -0.885 1.6919999999999998e+01 2.8199999999999998e+00 0.0000000000000000e+00 0 0 0
153 2 0.885 1.6919999999999998e+01 0.0000000000000000e+00 5.6399999999999997e+00 0 0 0
154 1 -0.885 1.9739999999999998e+01 0.0000000000000000e+00 5.6399999999999997e+00 0 0 0
159 2 0.885 1.9739999999999998e+01 2.8199999999999998e+00 5.6399999999999997e+00 0 0 0
160 1 -0.885 1.6919999999999998e+01 2.8199999999999998e+00 5.6399999999999997e+00 0 0 0
57 2 0.885 1.6919999999999998e+01 5.6399999999999997e+00 0.0000000000000000e+00 0 0 0
58 1 -0.885 1.9739999999999998e+01 5.6399999999999997e+00 0.0000000000000000e+00 0 0 0
61 2 0.885 1.9739999999999998e+01 5.6399999999999997e+00 2.8199999999999998e+00 0 0 0
62 1 -0.885 1.6919999999999998e+01 5.6399999999999997e+00 2.8199999999999998e+00 0 0 0
185 2 0.885 1.6919999999999998e+01 5.6399999999999997e+00 5.6399999999999997e+00 0 0 0
186 1 -0.885 1.9739999999999998e+01 5.6399999999999997e+00 5.6399999999999997e+00 0 0 0
35 2 0.885 0.0000000000000000e+00 8.4599999999999991e+00 2.8199999999999998e+00 0 0 0
36 1 -0.885 2.8199999999999998e+00 8.4599999999999991e+00 2.8199999999999998e+00 0 0 0
39 2 0.885 2.8199999999999998e+00 8.4599999999999991e+00 0.0000000000000000e+00 0 0 0
40 1 -0.885 0.0000000000000000e+00 8.4599999999999991e+00 0.0000000000000000e+00 0 0 0
167 2 0.885 2.8199999999999998e+00 8.4599999999999991e+00 5.6399999999999997e+00 0 0 0
168 1 -0.885 0.0000000000000000e+00 8.4599999999999991e+00 5.6399999999999997e+00 0 0 0
65 2 0.885 0.0000000000000000e+00 1.1279999999999999e+01 0.0000000000000000e+00 0 0 0
66 1 -0.885 2.8199999999999998e+00 1.1279999999999999e+01 0.0000000000000000e+00 0 0 0
67 2 0.885 0.0000000000000000e+00 1.4100000000000000e+01 2.8199999999999998e+00 0 0 0
68 1 -0.885 2.8199999999999998e+00 1.4100000000000000e+01 2.8199999999999998e+00 0 0 0
69 2 0.885 2.8199999999999998e+00 1.1279999999999999e+01 2.8199999999999998e+00 0 0 0
70 1 -0.885 0.0000000000000000e+00 1.1279999999999999e+01 2.8199999999999998e+00 0 0 0
71 2 0.885 2.8199999999999998e+00 1.4100000000000000e+01 0.0000000000000000e+00 0 0 0
72 1 -0.885 0.0000000000000000e+00 1.4100000000000000e+01 0.0000000000000000e+00 0 0 0
193 2 0.885 0.0000000000000000e+00 1.1279999999999999e+01 5.6399999999999997e+00 0 0 0
194 1 -0.885 2.8199999999999998e+00 1.1279999999999999e+01 5.6399999999999997e+00 0 0 0
199 2 0.885 2.8199999999999998e+00 1.4100000000000000e+01 5.6399999999999997e+00 0 0 0
200 1 -0.885 0.0000000000000000e+00 1.4100000000000000e+01 5.6399999999999997e+00 0 0 0
43 2 0.885 5.6399999999999997e+00 8.4599999999999991e+00 2.8199999999999998e+00 0 0 0
48 1 -0.885 5.6399999999999997e+00 8.4599999999999991e+00 0.0000000000000000e+00 0 0 0
176 1 -0.885 5.6399999999999997e+00 8.4599999999999991e+00 5.6399999999999997e+00 0 0 0
73 2 0.885 5.6399999999999997e+00 1.1279999999999999e+01 0.0000000000000000e+00 0 0 0
75 2 0.885 5.6399999999999997e+00 1.4100000000000000e+01 2.8199999999999998e+00 0 0 0
78 1 -0.885 5.6399999999999997e+00 1.1279999999999999e+01 2.8199999999999998e+00 0 0 0
80 1 -0.885 5.6399999999999997e+00 1.4100000000000000e+01 0.0000000000000000e+00 0 0 0
201 2 0.885 5.6399999999999997e+00 1.1279999999999999e+01 5.6399999999999997e+00 0 0 0
208 1 -0.885 5.6399999999999997e+00 1.4100000000000000e+01 5.6399999999999997e+00 0 0 0
44 1 -0.885 8.4599999999999991e+00 8.4599999999999991e+00 2.8199999999999998e+00 0 0 0
47 2 0.885 8.4599999999999991e+00 8.4599999999999991e+00 0.0000000000000000e+00 0 0 0
175 2 0.885 8.4599999999999991e+00 8.4599999999999991e+00 5.6399999999999997e+00 0 0 0
74 1 -0.885 8.4599999999999991e+00 1.1279999999999999e+01 0.0000000000000000e+00 0 0 0
76 1 -0.885 8.4599999999999991e+00 1.4100000000000000e+01 2.8199999999999998e+00 0 0 0
77 2 0.885 8.4599999999999991e+00 1.1279999999999999e+01 2.8199999999999998e+00 0 0 0
79 2 0.885 8.4599999999999991e+00 1.4100000000000000e+01 0.0000000000000000e+00 0 0 0
202 1 -0.885 8.4599999999999991e+00 1.1279999999999999e+01 5.6399999999999997e+00 0 0 0
207 2 0.885 8.4599999999999991e+00 1.4100000000000000e+01 5.6399999999999997e+00 0 0 0
51 2 0.885 1.1279999999999999e+01 8.4599999999999991e+00 2.8199999999999998e+00 0 0 0
52 1 -0.885 1.4100000000000000e+01 8.4599999999999991e+00 2.8199999999999998e+00 0 0 0
55 2 0.885 1.4100000000000000e+01 8.4599999999999991e+00 0.0000000000000000e+00 0 0 0
56 1 -0.885 1.1279999999999999e+01 8.4599999999999991e+00 0.0000000000000000e+00 0 0 0
183 2 0.885 1.4100000000000000e+01 8.4599999999999991e+00 5.6399999999999997e+00 0 0 0
184 1 -0.885 1.1279999999999999e+01 8.4599999999999991e+00 5.6399999999999997e+00 0 0 0
81 2 0.885 1.1279999999999999e+01 1.1279999999999999e+01 0.0000000000000000e+00 0 0 0
82 1 -0.885 1.4100000000000000e+01 1.1279999999999999e+01 0.0000000000000000e+00 0 0 0
83 2 0.885 1.1279999999999999e+01 1.4100000000000000e+01 2.8199999999999998e+00 0 0 0
84 1 -0.885 1.4100000000000000e+01 1.4100000000000000e+01 2.8199999999999998e+00 0 0 0
85 2 0.885 1.4100000000000000e+01 1.1279999999999999e+01 2.8199999999999998e+00 0 0 0
86 1 -0.885 1.1279999999999999e+01 1.1279999999999999e+01 2.8199999999999998e+00 0 0 0
87 2 0.885 1.4100000000000000e+01 1.4100000000000000e+01 0.0000000000000000e+00 0 0 0
88 1 -0.885 1.1279999999999999e+01 1.4100000000000000e+01 0.0000000000000000e+00 0 0 0
209 2 0.885 1.1279999999999999e+01 1.1279999999999999e+01 5.6399999999999997e+00 0 0 0
210 1 -0.885 1.4100000000000000e+01 1.1279999999999999e+01 5.6399999999999997e+00 0 0 0
215 2 0.885 1.4100000000000000e+01 1.4100000000000000e+01 5.6399999999999997e+00 0 0 0
216 1 -0.885 1.1279999999999999e+01 1.4100000000000000e+01 5.6399999999999997e+00 0 0 0
59 2 0.885 1.6919999999999998e+01 8.4599999999999991e+00 2.8199999999999998e+00 0 0 0
60 1 -0.885 1.9739999999999998e+01 8.4599999999999991e+00 2.8199999999999998e+00 0 0 0
63 2 0.885 1.9739999999999998e+01 8.4599999999999991e+00 0.0000000000000000e+00 0 0 0
64 1 -0.885 1.6919999999999998e+01 8.4599999999999991e+00 0.0000000000000000e+00 0 0 0
191 2 0.885 1.9739999999999998e+01 8.4599999999999991e+00 5.6399999999999997e+00 0 0 0
192 1 -0.885 1.6919999999999998e+01 8.4599999999999991e+00 5.6399999999999997e+00 0 0 0
89 2 0.885 1.6919999999999998e+01 1.1279999999999999e+01 0.0000000000000000e+00 0 0 0
90 1 -0.885 1.9739999999999998e+01 1.1279999999999999e+01 0.0000000000000000e+00 0 0 0
91 2 0.885 1.6919999999999998e+01 1.4100000000000000e+01 2.8199999999999998e+00 0 0 0
92 1 -0.885 1.9739999999999998e+01 1.4100000000000000e+01 2.8199999999999998e+00 0 0 0
93 2 0.885 1.9739999999999998e+01 1.1279999999999999e+01 2.8199999999999998e+00 0 0 0
94 1 -0.885 1.6919999999999998e+01 1.1279999999999999e+01 2.8199999999999998e+00 0 0 0
95 2 0.885 1.9739999999999998e+01 1.4100000000000000e+01 0.0000000000000000e+00 0 0 0
96 1 -0.885 1.6919999999999998e+01 1.4100000000000000e+01 0.0000000000000000e+00 0 0 0
217 2 0.885 1.6919999999999998e+01 1.1279999999999999e+01 5.6399999999999997e+00 0 0 0
218 1 -0.885 1.9739999999999998e+01 1.1279999999999999e+01 5.6399999999999997e+00 0 0 0
223 2 0.885 1.9739999999999998e+01 1.4100000000000000e+01 5.6399999999999997e+00 0 0 0
224 1 -0.885 1.6919999999999998e+01 1.4100000000000000e+01 5.6399999999999997e+00 0 0 0
97 2 0.885 0.0000000000000000e+00 1.6919999999999998e+01 0.0000000000000000e+00 0 0 0
98 1 -0.885 2.8199999999999998e+00 1.6919999999999998e+01 0.0000000000000000e+00 0 0 0
99 2 0.885 0.0000000000000000e+00 1.9739999999999998e+01 2.8199999999999998e+00 0 0 0
100 1 -0.885 2.8199999999999998e+00 1.9739999999999998e+01 2.8199999999999998e+00 0 0 0
101 2 0.885 2.8199999999999998e+00 1.6919999999999998e+01 2.8199999999999998e+00 0 0 0
102 1 -0.885 0.0000000000000000e+00 1.6919999999999998e+01 2.8199999999999998e+00 0 0 0
103 2 0.885 2.8199999999999998e+00 1.9739999999999998e+01 0.0000000000000000e+00 0 0 0
104 1 -0.885 0.0000000000000000e+00 1.9739999999999998e+01 0.0000000000000000e+00 0 0 0
225 2 0.885 0.0000000000000000e+00 1.6919999999999998e+01 5.6399999999999997e+00 0 0 0
226 1 -0.885 2.8199999999999998e+00 1.6919999999999998e+01 5.6399999999999997e+00 0 0 0
231 2 0.885 2.8199999999999998e+00 1.9739999999999998e+01 5.6399999999999997e+00 0 0 0
232 1 -0.885 0.0000000000000000e+00 1.9739999999999998e+01 5.6399999999999997e+00 0 0 0
105 2 0.885 5.6399999999999997e+00 1.6919999999999998e+01 0.0000000000000000e+00 0 0 0
107 2 0.885 5.6399999999999997e+00 1.9739999999999998e+01 2.8199999999999998e+00 0 0 0
110 1 -0.885 5.6399999999999997e+00 1.6919999999999998e+01 2.8199999999999998e+00 0 0 0
112 1 -0.885 5.6399999999999997e+00 1.9739999999999998e+01 0.0000000000000000e+00 0 0 0
233 2 0.885 5.6399999999999997e+00 1.6919999999999998e+01 5.6399999999999997e+00 0 0 0
240 1 -0.885 5.6399999999999997e+00 1.9739999999999998e+01 5.6399999999999997e+00 0 0 0
106 1 -0.885 8.4599999999999991e+00 1.6919999999999998e+01 0.0000000000000000e+00 0 0 0
108 1 -0.885 8.4599999999999991e+00 1.9739999999999998e+01 2.8199999999999998e+00 0 0 0
109 2 0.885 8.4599999999999991e+00 1.6919999999999998e+01 2.8199999999999998e+00 0 0 0
111 2 0.885 8.4599999999999991e+00 1.9739999999999998e+01 0.0000000000000000e+00 0 0 0
234 1 -0.885 8.4599999999999991e+00 1.6919999999999998e+01 5.6399999999999997e+00 0 0 0
239 2 0.885 8.4599999999999991e+00 1.9739999999999998e+01 5.6399999999999997e+00 0 0 0
113 2 0.885 1.1279999999999999e+01 1.6919999999999998e+01 0.0000000000000000e+00 0 0 0
114 1 -0.885 1.4100000000000000e+01 1.6919999999999998e+01 0.0000000000000000e+00 0 0 0
115 2 0.885 1.1279999999999999e+01 1.9739999999999998e+01 2.8199999999999998e+00 0 0 0
116 1 -0.885 1.4100000000000000e+01 1.9739999999999998e+01 2.8199999999999998e+00 0 0 0
117 2 0.885 1.4100000000000000e+01 1.6919999999999998e+01 2.8199999999999998e+00 0 0 0
118 1 -0.885 1.1279999999999999e+01 1.6919999999999998e+01 2.8199999999999998e+00 0 0 0
119 2 0.885 1.4100000000000000e+01 1.9739999999999998e+01 0.0000000000000000e+00 0 0 0
120 1 -0.885 1.1279999999999999e+01 1.9739999999999998e+01 0.0000000000000000e+00 0 0 0
241 2 0.885 1.1279999999999999e+01 1.6919999999999998e+01 5.6399999999999997e+00 0 0 0
242 1 -0.885 1.4100000000000000e+01 1.6919999999999998e+01 5.6399999999999997e+00 0 0 0
247 2 0.885 1.4100000000000000e+01 1.9739999999999998e+01 5.6399999999999997e+00 0 0 0
248 1 -0.885 1.1279999999999999e+01 1.9739999999999998e+01 5.6399999999999997e+00 0 0 0
121 2 0.885 1.6919999999999998e+01 1.6919999999999998e+01 0.0000000000000000e+00 0 0 0
122 1 -0.885 1.9739999999999998e+01 1.6919999999999998e+01 0.0000000000000000e+00 0 0 0
123 2 0.885 1.6919999999999998e+01 1.9739999999999998e+01 2.8199999999999998e+00 0 0 0
124 1 -0.885 1.9739999999999998e+01 1.9739999999999998e+01 2.8199999999999998e+00 0 0 0
125 2 0.885 1.9739999999999998e+01 1.6919999999999998e+01 2.8199999999999998e+00 0 0 0
126 1 -0.885 1.6919999999999998e+01 1.6919999999999998e+01 2.8199999999999998e+00 0 0 0
127 2 0.885 1.9739999999999998e+01 1.9739999999999998e+01 0.0000000000000000e+00 0 0 0
128 1 -0.885 1.6919999999999998e+01 1.9739999999999998e+01 0.0000000000000000e+00 0 0 0
249 2 0.885 1.6919999999999998e+01 1.6919999999999998e+01 5.6399999999999997e+00 0 0 0
250 1 -0.885 1.9739999999999998e+01 1.6919999999999998e+01 5.6399999999999997e+00 0 0 0
255 2 0.885 1.9739999999999998e+01 1.9739999999999998e+01 5.6399999999999997e+00 0 0 0
256 1 -0.885 1.6919999999999998e+01 1.9739999999999998e+01 5.6399999999999997e+00 0 0 0
131 2 0.885 0.0000000000000000e+00 2.8199999999999998e+00 8.4599999999999991e+00 0 0 0
132 1 -0.885 2.8199999999999998e+00 2.8199999999999998e+00 8.4599999999999991e+00 0 0 0
133 2 0.885 2.8199999999999998e+00 0.0000000000000000e+00 8.4599999999999991e+00 0 0 0
134 1 -0.885 0.0000000000000000e+00 0.0000000000000000e+00 8.4599999999999991e+00 0 0 0
257 2 0.885 0.0000000000000000e+00 0.0000000000000000e+00 1.1279999999999999e+01 0 0 0
258 1 -0.885 2.8199999999999998e+00 0.0000000000000000e+00 1.1279999999999999e+01 0 0 0
259 2 0.885 0.0000000000000000e+00 2.8199999999999998e+00 1.4100000000000000e+01 0 0 0
260 1 -0.885 2.8199999999999998e+00 2.8199999999999998e+00 1.4100000000000000e+01 0 0 0
261 2 0.885 2.8199999999999998e+00 0.0000000000000000e+00 1.4100000000000000e+01 0 0 0
262 1 -0.885 0.0000000000000000e+00 0.0000000000000000e+00 1.4100000000000000e+01 0 0 0
263 2 0.885 2.8199999999999998e+00 2.8199999999999998e+00 1.1279999999999999e+01 0 0 0
264 1 -0.885 0.0000000000000000e+00 2.8199999999999998e+00 1.1279999999999999e+01 0 0 0
165 2 0.885 2.8199999999999998e+00 5.6399999999999997e+00 8.4599999999999991e+00 0 0 0
166 1 -0.885 0.0000000000000000e+00 5.6399999999999997e+00 8.4599999999999991e+00 0 0 0
289 2 0.885 0.0000000000000000e+00 5.6399999999999997e+00 1.1279999999999999e+01 0 0 0
290 1 -0.885 2.8199999999999998e+00 5.6399999999999997e+00 1.1279999999999999e+01 0 0 0
293 2 0.885 2.8199999999999998e+00 5.6399999999999997e+00 1.4100000000000000e+01 0 0 0
294 1 -0.885 0.0000000000000000e+00 5.6399999999999997e+00 1.4100000000000000e+01 0 0 0
139 2 0.885 5.6399999999999997e+00 2.8199999999999998e+00 8.4599999999999991e+00 0 0 0
142 1 -0.885 5.6399999999999997e+00 0.0000000000000000e+00 8.4599999999999991e+00 0 0 0
265 2 0.885 5.6399999999999997e+00 0.0000000000000000e+00 1.1279999999999999e+01 0 0 0
267 2 0.885 5.6399999999999997e+00 2.8199999999999998e+00 1.4100000000000000e+01 0 0 0
270 1 -0.885 5.6399999999999997e+00 0.0000000000000000e+00 1.4100000000000000e+01 0 0 0
272 1 -0.885 5.6399999999999997e+00 2.8199999999999998e+00 1.1279999999999999e+01 0 0 0
174 1 -0.885 5.6399999999999997e+00 5.6399999999999997e+00 8.4599999999999991e+00 0 0 0
297 2 0.885 5.6399999999999997e+00 5.6399999999999997e+00 1.1279999999999999e+01 0 0 0
302 1 -0.885 5.6399999999999997e+00 5.6399999999999997e+00 1.4100000000000000e+01 0 0 0
140 1 -0.885 8.4599999999999991e+00 2.8199999999999998e+00 8.4599999999999991e+00 0 0 0
141 2 0.885 8.4599999999999991e+00 0.0000000000000000e+00 8.4599999999999991e+00 0 0 0
266 1 -0.885 8.4599999999999991e+00 0.0000000000000000e+00 1.1279999999999999e+01 0 0 0
268 1 -0.885 8.4599999999999991e+00 2.8199999999999998e+00 1.4100000000000000e+01 0 0 0
269 2 0.885 8.4599999999999991e+00 0.0000000000000000e+00 1.4100000000000000e+01 0 0 0
271 2 0.885 8.4599999999999991e+00 2.8199999999999998e+00 1.1279999999999999e+01 0 0 0
173 2 0.885 8.4599999999999991e+00 5.6399999999999997e+00 8.4599999999999991e+00 0 0 0
298 1 -0.885 8.4599999999999991e+00 5.6399999999999997e+00 1.1279999999999999e+01 0 0 0
301 2 0.885 8.4599999999999991e+00 5.6399999999999997e+00 1.4100000000000000e+01 0 0 0
147 2 0.885 1.1279999999999999e+01 2.8199999999999998e+00 8.4599999999999991e+00 0 0 0
148 1 -0.885 1.4100000000000000e+01 2.8199999999999998e+00 8.4599999999999991e+00 0 0 0
149 2 0.885 1.4100000000000000e+01 0.0000000000000000e+00 8.4599999999999991e+00 0 0 0
150 1 -0.885 1.1279999999999999e+01 0.0000000000000000e+00 8.4599999999999991e+00 0 0 0
273 2 0.885 1.1279999999999999e+01 0.0000000000000000e+00 1.1279999999999999e+01 0 0 0
274 1 -0.885 1.4100000000000000e+01 0.0000000000000000e+00 1.1279999999999999e+01 0 0 0
275 2 0.885 1.1279999999999999e+01 2.8199999999999998e+00 1.4100000000000000e+01 0 0 0
276 1 -0.885 1.4100000000000000e+01 2.8199999999999998e+00 1.4100000000000000e+01 0 0 0
277 2 0.885 1.4100000000000000e+01 0.0000000000000000e+00 1.4100000000000000e+01 0 0 0
278 1 -0.885 1.1279999999999999e+01 0.0000000000000000e+00 1.4100000000000000e+01 0 0 0
279 2 0.885 1.4100000000000000e+01 2.8199999999999998e+00 1.1279999999999999e+01 0 0 0
280 1 -0.885 1.1279999999999999e+01 2.8199999999999998e+00 1.1279999999999999e+01 0 0 0
181 2 0.885 1.4100000000000000e+01 5.6399999999999997e+00 8.4599999999999991e+00 0 0 0
182 1 -0.885 1.1279999999999999e+01 5.6399999999999997e+00 8.4599999999999991e+00 0 0 0
305 2 0.885 1.1279999999999999e+01 5.6399999999999997e+00 1.1279999999999999e+01 0 0 0
306 1 -0.885 1.4100000000000000e+01 5.6399999999999997e+00 1.1279999999999999e+01 0 0 0
309 2 0.885 1.4100000000000000e+01 5.6399999999999997e+00 1.4100000000000000e+01 0 0 0
310 1 -0.885 1.1279999999999999e+01 5.6399999999999997e+00 1.4100000000000000e+01 0 0 0
155 2 0.885 1.6919999999999998e+01 2.8199999999999998e+00 8.4599999999999991e+00 0 0 0
156 1 -0.885 1.9739999999999998e+01 2.8199999999999998e+00 8.4599999999999991e+00 0 0 0
157 2 0.885 1.9739999999999998e+01 0.0000000000000000e+00 8.4599999999999991e+00 0 0 0
158 1 -0.885 1.6919999999999998e+01 0.0000000000000000e+00 8.4599999999999991e+00 0 0 0
281 2 0.885 1.6919999999999998e+01 0.0000000000000000e+00 1.1279999999999999e+01 0 0 0
282 1 -0.885 1.9739999999999998e+01 0.0000000000000000e+00 1.1279999999999999e+01 0 0 0
283 2 0.885 1.6919999999999998e+01 2.8199999999999998e+00 1.4100000000000000e+01 0 0 0
284 1 -0.885 1.9739999999999998e+01 2.8199999999999998e+00 1.4100000000000000e+01 0 0 0
285 2 0.885 1.9739999999999998e+01 0.0000000000000000e+00 1.4100000000000000e+01 0 0 0
286 1 -0.885 1.6919999999999998e+01 0.0000000000000000e+00 1.4100000000000000e+01 0 0 0
287 2 0.885 1.9739999999999998e+01 2.8199999999999998e+00 1.1279999999999999e+01 0 0 0
288 1 -0.885 1.6919999999999998e+01 2.8199999999999998e+00 1.1279999999999999e+01 0 0 0
189 2 0.885 1.9739999999999998e+01 5.6399999999999997e+00 8.4599999999999991e+00 0 0 0
190 1 -0.885 1.6919999999999998e+01 5.6399999999999997e+00 8.4599999999999991e+00 0 0 0
313 2 0.885 1.6919999999999998e+01 5.6399999999999997e+00 1.1279999999999999e+01 0 0 0
314 1 -0.885 1.9739999999999998e+01 5.6399999999999997e+00 1.1279999999999999e+01 0 0 0
317 2 0.885 1.9739999999999998e+01 5.6399999999999997e+00 1.4100000000000000e+01 0 0 0
318 1 -0.885 1.6919999999999998e+01 5.6399999999999997e+00 1.4100000000000000e+01 0 0 0
163 2 0.885 0.0000000000000000e+00 8.4599999999999991e+00 8.4599999999999991e+00 0 0 0
164 1 -0.885 2.8199999999999998e+00 8.4599999999999991e+00 8.4599999999999991e+00 0 0 0
291 2 0.885 0.0000000000000000e+00 8.4599999999999991e+00 1.4100000000000000e+01 0 0 0
292 1 -0.885 2.8199999999999998e+00 8.4599999999999991e+00 1.4100000000000000e+01 0 0 0
295 2 0.885 2.8199999999999998e+00 8.4599999999999991e+00 1.1279999999999999e+01 0 0 0
296 1 -0.885 0.0000000000000000e+00 8.4599999999999991e+00 1.1279999999999999e+01 0 0 0
195 2 0.885 0.0000000000000000e+00 1.4100000000000000e+01 8.4599999999999991e+00 0 0 0
196 1 -0.885 2.8199999999999998e+00 1.4100000000000000e+01 8.4599999999999991e+00 0 0 0
197 2 0.885 2.8199999999999998e+00 1.1279999999999999e+01 8.4599999999999991e+00 0 0 0
198 1 -0.885 0.0000000000000000e+00 1.1279999999999999e+01 8.4599999999999991e+00 0 0 0
321 2 0.885 0.0000000000000000e+00 1.1279999999999999e+01 1.1279999999999999e+01 0 0 0
322 1 -0.885 2.8199999999999998e+00 1.1279999999999999e+01 1.1279999999999999e+01 0 0 0
323 2 0.885 0.0000000000000000e+00 1.4100000000000000e+01 1.4100000000000000e+01 0 0 0
324 1 -0.885 2.8199999999999998e+00 1.4100000000000000e+01 1.4100000000000000e+01 0 0 0
325 2 0.885 2.8199999999999998e+00 1.1279999999999999e+01 1.4100000000000000e+01 0 0 0
326 1 -0.885 0.0000000000000000e+00 1.1279999999999999e+01 1.4100000000000000e+01 0 0 0
327 2 0.885 2.8199999999999998e+00 1.4100000000000000e+01 1.1279999999999999e+01 0 0 0
328 1 -0.885 0.0000000000000000e+00 1.4100000000000000e+01 1.1279999999999999e+01 0 0 0
171 2 0.885 5.6399999999999997e+00 8.4599999999999991e+00 8.4599999999999991e+00 0 0 0
299 2 0.885 5.6399999999999997e+00 8.4599999999999991e+00 1.4100000000000000e+01 0 0 0
304 1 -0.885 5.6399999999999997e+00 8.4599999999999991e+00 1.1279999999999999e+01 0 0 0
203 2 0.885 5.6399999999999997e+00 1.4100000000000000e+01 8.4599999999999991e+00 0 0 0
206 1 -0.885 5.6399999999999997e+00 1.1279999999999999e+01 8.4599999999999991e+00 0 0 0
329 2 0.885 5.6399999999999997e+00 1.1279999999999999e+01 1.1279999999999999e+01 0 0 0
331 2 0.885 5.6399999999999997e+00 1.4100000000000000e+01 1.4100000000000000e+01 0 0 0
334 1 -0.885 5.6399999999999997e+00 1.1279999999999999e+01 1.4100000000000000e+01 0 0 0
336 1 -0.885 5.6399999999999997e+00 1.4100000000000000e+01 1.1279999999999999e+01 0 0 0
172 1 -0.885 8.4599999999999991e+00 8.4599999999999991e+00 8.4599999999999991e+00 0 0 0
300 1 -0.885 8.4599999999999991e+00 8.4599999999999991e+00 1.4100000000000000e+01 0 0 0
303 2 0.885 8.4599999999999991e+00 8.4599999999999991e+00 1.1279999999999999e+01 0 0 0
204 1 -0.885 8.4599999999999991e+00 1.4100000000000000e+01 8.4599999999999991e+00 0 0 0
205 2 0.885 8.4599999999999991e+00 1.1279999999999999e+01 8.4599999999999991e+00 0 0 0
330 1 -0.885 8.4599999999999991e+00 1.1279999999999999e+01 1.1279999999999999e+01 0 0 0
332 1 -0.885 8.4599999999999991e+00 1.4100000000000000e+01 1.4100000000000000e+01 0 0 0
333 2 0.885 8.4599999999999991e+00 1.1279999999999999e+01 1.4100000000000000e+01 0 0 0
335 2 0.885 8.4599999999999991e+00 1.4100000000000000e+01 1.1279999999999999e+01 0 0 0
179 2 0.885 1.1279999999999999e+01 8.4599999999999991e+00 8.4599999999999991e+00 0 0 0
180 1 -0.885 1.4100000000000000e+01 8.4599999999999991e+00 8.4599999999999991e+00 0 0 0
307 2 0.885 1.1279999999999999e+01 8.4599999999999991e+00 1.4100000000000000e+01 0 0 0
308 1 -0.885 1.4100000000000000e+01 8.4599999999999991e+00 1.4100000000000000e+01 0 0 0
311 2 0.885 1.4100000000000000e+01 8.4599999999999991e+00 1.1279999999999999e+01 0 0 0
312 1 -0.885 1.1279999999999999e+01 8.4599999999999991e+00 1.1279999999999999e+01 0 0 0
211 2 0.885 1.1279999999999999e+01 1.4100000000000000e+01 8.4599999999999991e+00 0 0 0
212 1 -0.885 1.4100000000000000e+01 1.4100000000000000e+01 8.4599999999999991e+00 0 0 0
213 2 0.885 1.4100000000000000e+01 1.1279999999999999e+01 8.4599999999999991e+00 0 0 0
214 1 -0.885 1.1279999999999999e+01 1.1279999999999999e+01 8.4599999999999991e+00 0 0 0
337 2 0.885 1.1279999999999999e+01 1.1279999999999999e+01 1.1279999999999999e+01 0 0 0
338 1 -0.885 1.4100000000000000e+01 1.1279999999999999e+01 1.1279999999999999e+01 0 0 0
339 2 0.885 1.1279999999999999e+01 1.4100000000000000e+01 1.4100000000000000e+01 0 0 0
340 1 -0.885 1.4100000000000000e+01 1.4100000000000000e+01 1.4100000000000000e+01 0 0 0
341 2 0.885 1.4100000000000000e+01 1.1279999999999999e+01 1.4100000000000000e+01 0 0 0
342 1 -0.885 1.1279999999999999e+01 1.1279999999999999e+01 1.4100000000000000e+01 0 0 0
343 2 0.885 1.4100000000000000e+01 1.4100000000000000e+01 1.1279999999999999e+01 0 0 0
344 1 -0.885 1.1279999999999999e+01 1.4100000000000000e+01 1.1279999999999999e+01 0 0 0
187 2 0.885 1.6919999999999998e+01 8.4599999999999991e+00 8.4599999999999991e+00 0 0 0
188 1 -0.885 1.9739999999999998e+01 8.4599999999999991e+00 8.4599999999999991e+00 0 0 0
315 2 0.885 1.6919999999999998e+01 8.4599999999999991e+00 1.4100000000000000e+01 0 0 0
316 1 -0.885 1.9739999999999998e+01 8.4599999999999991e+00 1.4100000000000000e+01 0 0 0
319 2 0.885 1.9739999999999998e+01 8.4599999999999991e+00 1.1279999999999999e+01 0 0 0
320 1 -0.885 1.6919999999999998e+01 8.4599999999999991e+00 1.1279999999999999e+01 0 0 0
219 2 0.885 1.6919999999999998e+01 1.4100000000000000e+01 8.4599999999999991e+00 0 0 0
220 1 -0.885 1.9739999999999998e+01 1.4100000000000000e+01 8.4599999999999991e+00 0 0 0
221 2 0.885 1.9739999999999998e+01 1.1279999999999999e+01 8.4599999999999991e+00 0 0 0
222 1 -0.885 1.6919999999999998e+01 1.1279999999999999e+01 8.4599999999999991e+00 0 0 0
345 2 0.885 1.6919999999999998e+01 1.1279999999999999e+01 1.1279999999999999e+01 0 0 0
346 1 -0.885 1.9739999999999998e+01 1.1279999999999999e+01 1.1279999999999999e+01 0 0 0
347 2 0.885 1.6919999999999998e+01 1.4100000000000000e+01 1.4100000000000000e+01 0 0 0
348 1 -0.885 1.9739999999999998e+01 1.4100000000000000e+01 1.4100000000000000e+01 0 0 0
349 2 0.885 1.9739999999999998e+01 1.1279999999999999e+01 1.4100000000000000e+01 0 0 0
350 1 -0.885 1.6919999999999998e+01 1.1279999999999999e+01 1.4100000000000000e+01 0 0 0
351 2 0.885 1.9739999999999998e+01 1.4100000000000000e+01 1.1279999999999999e+01 0 0 0
352 1 -0.885 1.6919999999999998e+01 1.4100000000000000e+01 1.1279999999999999e+01 0 0 0
227 2 0.885 0.0000000000000000e+00 1.9739999999999998e+01 8.4599999999999991e+00 0 0 0
228 1 -0.885 2.8199999999999998e+00 1.9739999999999998e+01 8.4599999999999991e+00 0 0 0
229 2 0.885 2.8199999999999998e+00 1.6919999999999998e+01 8.4599999999999991e+00 0 0 0
230 1 -0.885 0.0000000000000000e+00 1.6919999999999998e+01 8.4599999999999991e+00 0 0 0
353 2 0.885 0.0000000000000000e+00 1.6919999999999998e+01 1.1279999999999999e+01 0 0 0