******************************************************************
*************  stfc/ccp5  program  library  package  ** D ********
*************  daresbury laboratory general purpose  *** L *******
**         **  classical molecular dynamics program  **** \ ******
** DL_POLY **  authors:   i.t.todorov   &   w.smith  ***** P *****
**         **  version:  4.10.0   /  September 2020  ****** O ****
*************  execution on           1 process(es)  ******* L ***
*************  contributors' list:                   ******** Y **
*************  ------------------------------------  *************
*************  i.j.bush, h.a.boateng, r.davidchak,   *************
*************  m.a.seaton, a.v.brukhno, a.m.elena,   *************
*************  s.l.daraszewicz,g.khara,s.t.murphy    *************
*************  j.madge,a.b.g.chalk,i.scivetti,       *************
*************  j.wilkins                             *************
******************************************************************

**** compiler: GCC version 11.1.1 20210721 [revision 076930b9 ****
**** compiler: 690ac3564638636f6b13bbb6bc608aea] ****
*** warning - VdW cutoff less than minimum cutoff, setting to global cutoff !!! ***


 warning issued      6

 *** warning - maximum length of linked cell list: 21 + 1 is less than maximum length of particle exclusion list: 23 !!! ***
 *** this may be due to using too short a cutoff in CONTROL and/or a badly defined intramolecular topology in FIELD !!! ***
 *** further potential problems may be expected !!! ***

 warning issued    100

 *** warning - primary link cell algorithm has a link cell dimension that is < 3 !!! ***
 *** DL_POLY_4 RUNNING IN LOW EFFICIENCY MODE !!! ***


********************************************************************************
*** title:                                                                   ***
*** adp                                                                      ***
********************************************************************************


I/O Parameters:
  I/O read method: parallel by using MPI-I/O
  I/O readers set to 1
  I/O write method: parallel by using MPI-I/O
  I/O writers set to 1

File outputs:
  CONFIG file is adp.config
  FIELD file is adp.field

System parameters:
  Fixed simulation timestep (ps):  1.00000E-03
  Rolling averages length (steps):        100
  File output info:
  -- Restart dumping interval (steps):       1000
  -- Data printing interval (steps):         10
  -- Statistics file interval (steps):         10
  Simulation temperature (K):    300.00

Thermostat details:
  Ensemble: NVE (Microcanonical)

Forcefield Parameters:
  Final link-cell decomposition (x,y,z):      2     2     2
  Real space cutoff (Angs):   10.000
  Cutoff padding (Angs):  0.20000
  Subcelling threshold density:   50.000
  VdWs: Direct calculation
  -- VdW cutoff (Angs):   10.000
  Electrostatics: Smooth Particle Mesh Ewald
  -- Ewald sum precision:  1.00000E-06
  -- Ewald convergence parameter (Angs^-1):  0.32080
  -- Ewald kmax1 kmax2 kmax3   (x2):    14   14   14
  -- DaFT adjusted kmax values (x2):    15   15   15
  -- B-spline interpolation order: 8
  -- Extended Coulombic eXclusion: OFF



detailed topology opted out

 warning issued    120

 *** warning - unspecified atom-atom interactions set to zero !!! ***


 warning issued     22

 *** warning - : 1..4 scale factors reset for dihedrals in the system !!! ***

configuration file name:           CONFIG generated by ASE
selected image convention               3
simulation cell vectors
       21.0000000000        0.0000000000        0.0000000000
        0.0000000000       21.0000000000        0.0000000000
        0.0000000000        0.0000000000       21.0000000000
system volume            9261.00000000

*** all reading and connectivity checks DONE ***
time elapsed since job start:        0.005 sec
long-range correction for:
  vdw energy   -0.438779E-02
  vdw pressure   -0.649459E-04

*** initialisation and haloing DONE ***
time elapsed since job start:        0.005 sec

*** bookkeeping DONE ***
time elapsed since job start:        0.005 sec
degrees of freedom break-down neigh%list:
  free particles                  66
  centre of mass                  -3
  non-periodicity                  0
  frozen free particles            0
  shell-pseudo                     0
  constrained                      0
  RB translational                 0
  RB rotational                    0
  total (real)                    63

*** temperature setting DONE ***
time elapsed since job start:        0.005 sec
forces evaluated at (re)start for VV integration...

----------------------------------------------------------------------------------------------------------------------------------
         step     eng_tot    temp_tot     eng_cfg     eng_src     eng_cou     eng_bnd     eng_ang     eng_dih     eng_tet
     time(ps)      eng_pv    temp_rot     vir_cfg     vir_src     vir_cou     vir_bnd     vir_ang     vir_con     vir_tet
     cpu  (s)      volume    temp_shl     eng_shl     vir_shl       alpha        beta       gamma     vir_pmf       press
----------------------------------------------------------------------------------------------------------------------------------
            0 -5.3779E+01  3.0000E+02 -7.2558E+01 -2.2394E-01 -8.1330E+01  4.5975E-04  6.5526E-02  8.9300E+00  0.0000E+00
      0.00000 -6.8909E+01  0.0000E+00  8.2948E+01  1.0515E+00  8.1324E+01  5.7242E-01  0.0000E+00  0.0000E+00  0.0000E+00
        0.006  9.2610E+03  0.0000E+00  0.0000E+00  0.0000E+00  9.0000E+01  9.0000E+01  9.0000E+01  0.0000E+00 -1.1202E-01

      rolling  0.0000E+00  0.0000E+00  0.0000E+00  0.0000E+00  0.0000E+00  0.0000E+00  0.0000E+00  0.0000E+00  0.0000E+00
     averages  0.0000E+00  0.0000E+00  0.0000E+00  0.0000E+00  0.0000E+00  0.0000E+00  0.0000E+00  0.0000E+00  0.0000E+00
               0.0000E+00  0.0000E+00  0.0000E+00  0.0000E+00  0.0000E+00  0.0000E+00  0.0000E+00  0.0000E+00  0.0000E+00
----------------------------------------------------------------------------------------------------------------------------------
run terminating... elapsed  cpu time:        0.006 sec, job time:  1000000.000 sec, close time:      100.000 sec

dry run terminated
pressure tensor  (katms):
   -2.7263E-02 -1.7509E-01 -2.5693E-02
   -1.7509E-01 -4.1549E-01 -1.1348E-01
   -2.5693E-02 -1.1348E-01  1.0669E-01
  trace/3   -1.1202E-01
time elapsed since job start:        0.007 sec
 +----------------------------+----------+----------+------------+------------+------------+------------+------------+------------+------------+
 |            Name            | Process  |  Calls   |  Call Min  |  Call Max  |  Call Ave  |  Tot Min   |   Tot Max  |   Tot Ave  |      %     |
 | |v      Main               | All      |        1 |  6.000E-03 |  6.000E-03 |  6.000E-03 |  6.000E-03 |  6.000E-03 |  6.000E-03 |  1.000E+02 |
 |  |-     Initialisation     | All      |        1 |  4.000E-03 |  4.000E-03 |  4.000E-03 |  4.000E-03 |  4.000E-03 |  4.000E-03 |  6.667E+01 |
 |  |v     Main Calc          | All      |        1 |  1.000E-03 |  1.000E-03 |  1.000E-03 |  1.000E-03 |  1.000E-03 |  1.000E-03 |  1.667E+01 |
 |   |-    Linked Cells       | All      |        1 |  0.000E+00 |  0.000E+00 |  0.000E+00 |  0.000E+00 |  0.000E+00 |  0.000E+00 |  0.000E+00 |
 |   |-    Bonded Forces      | All      |        1 |  0.000E+00 |  0.000E+00 |  0.000E+00 |  0.000E+00 |  0.000E+00 |  0.000E+00 |  0.000E+00 |
 |   |-    Two-Body Init      | All      |        1 |  0.000E+00 |  0.000E+00 |  0.000E+00 |  0.000E+00 |  0.000E+00 |  0.000E+00 |  0.000E+00 |
 |   |-    Long Range         | All      |        1 |  1.000E-03 |  1.000E-03 |  1.000E-03 |  1.000E-03 |  1.000E-03 |  1.000E-03 |  1.667E+01 |
 |   |-    Short Range        | All      |        1 |  0.000E+00 |  0.000E+00 |  0.000E+00 |  0.000E+00 |  0.000E+00 |  0.000E+00 |  0.000E+00 |
 |   |-    Two-Body Final     | All      |        1 |  0.000E+00 |  0.000E+00 |  0.000E+00 |  0.000E+00 |  0.000E+00 |  0.000E+00 |  0.000E+00 |
 |  |-     Termination        | All      |        1 |  1.000E-03 |  1.000E-03 |  1.000E-03 |  1.000E-03 |  1.000E-03 |  1.000E-03 |  1.667E+01 |
 | ------- Untimed            | All      |        0 |  0.000E+00 |  0.000E+00 |  0.000E+00 |  0.000E+00 |  0.000E+00 |  0.000E+00 |  0.000E+00 |
 +----------------------------+----------+----------+------------+------------+------------+------------+------------+------------+------------+



******************************************************************
**** Thank you for using the DL_POLY_4 package in your work.  ****
**** Please, acknowledge our efforts by including the         ****
**** following references when publishing data obtained using ****
**** DL_POLY_4:                                               ****
****   - I.T. Todorov, W. Smith, K. Trachenko & M.T. Dove,    ****
****     J. Mater. Chem., 16, 1911-1918 (2006),               ****
****     https://doi.org/10.1039/B517931A                     ****
****   - I.J. Bush, I.T. Todorov & W. Smith,                  ****
****     Comp. Phys. Commun., 175, 323-329 (2006),            ****
****     https://doi.org/10.1016/j.cpc.2006.05.001            ****
******************************************************************
