******************************************************************
*************  stfc/ccp5  program  library  package  ** D ********
*************  daresbury laboratory general purpose  *** L *******
**         **  classical molecular dynamics program  **** \ ******
** DL_POLY **  authors:   i.t.todorov   &   w.smith  ***** P *****
**         **  version:  4.10.0   /  September 2020  ****** O ****
*************  execution on           1 process(es)  ******* L ***
*************  contributors' list:                   ******** Y **
*************  ------------------------------------  *************
*************  i.j.bush, h.a.boateng, r.davidchak,   *************
*************  m.a.seaton, a.v.brukhno, a.m.elena,   *************
*************  s.l.daraszewicz,g.khara,s.t.murphy    *************
*************  j.madge,a.b.g.chalk,i.scivetti,       *************
*************  j.wilkins                             *************
******************************************************************

**** compiler: GCC version 11.1.1 20210721 [revision 076930b9 ****
**** compiler: 690ac3564638636f6b13bbb6bc608aea] ****
*** warning - VdW cutoff less than minimum cutoff, setting to global cutoff !!! ***


 warning issued    100

 *** warning - primary link cell algorithm has a link cell dimension that is < 3 !!! ***
 *** DL_POLY_4 RUNNING IN LOW EFFICIENCY MODE !!! ***


********************************************************************************
*** title:                                                                   ***
*** SODIUM CHLORIDE                                                          ***
********************************************************************************


I/O Parameters:
  I/O read method: parallel by using MPI-I/O
  I/O readers set to 1
  I/O write method: parallel by using MPI-I/O
  I/O writers set to 1

File outputs:
  CONFIG file is NaCl.config
  FIELD file is NaCl.field

System parameters:
  Fixed simulation timestep (ps):  1.00000E-03
  Rolling averages length (steps):        100
  File output info:
  -- Restart dumping interval (steps):       1000
  -- Data printing interval (steps):          1
  -- Statistics file interval (steps):          1
  Simulation temperature (K):    500.00

Thermostat details:
  Ensemble: NVE (Microcanonical)

Forcefield Parameters:
  Final link-cell decomposition (x,y,z):      2     2     2
  Real space cutoff (Angs):   11.000
  Cutoff padding (Angs):  0.22000
  Subcelling threshold density:   50.000
  VdWs: Tabulated
  -- VdW cutoff (Angs):   11.000
  Electrostatics: Smooth Particle Mesh Ewald
  -- Ewald sum precision:  1.00000E-06
  -- Ewald convergence parameter (Angs^-1):  0.29034
  -- Ewald kmax1 kmax2 kmax3   (x2):    14   14   14
  -- DaFT adjusted kmax values (x2):    15   15   15
  -- B-spline interpolation order: 8
  -- Extended Coulombic eXclusion: OFF



detailed topology opted out
configuration file name:           CONFIG generated by ASE
selected image convention               3
simulation cell vectors
       22.5600000000        0.0000000000        0.0000000000
        0.0000000000       22.5600000000        0.0000000000
        0.0000000000        0.0000000000       22.5600000000
system volume            11481.9932160

*** all reading and connectivity checks DONE ***
time elapsed since job start:        0.014 sec
long-range correction for:
  vdw energy   -0.182761E+02
  vdw pressure   -0.218951E+00

*** initialisation and haloing DONE ***
time elapsed since job start:        0.015 sec

*** bookkeeping DONE ***
time elapsed since job start:        0.015 sec
degrees of freedom break-down neigh%list:
  free particles                1536
  centre of mass                  -3
  non-periodicity                  0
  frozen free particles            0
  shell-pseudo                     0
  constrained                      0
  RB translational                 0
  RB rotational                    0
  total (real)                  1533

*** temperature setting DONE ***
time elapsed since job start:        0.016 sec
forces evaluated at (re)start for VV integration...

----------------------------------------------------------------------------------------------------------------------------------
         step     eng_tot    temp_tot     eng_cfg     eng_src     eng_cou     eng_bnd     eng_ang     eng_dih     eng_tet
     time(ps)      eng_pv    temp_rot     vir_cfg     vir_src     vir_cou     vir_bnd     vir_ang     vir_con     vir_tet
     cpu  (s)      volume    temp_shl     eng_shl     vir_shl       alpha        beta       gamma     vir_pmf       press
----------------------------------------------------------------------------------------------------------------------------------
            0 -4.6827E+04  5.0000E+02 -4.7589E+04  5.0909E+03 -5.2680E+04  0.0000E+00  0.0000E+00  0.0000E+00  0.0000E+00
      0.00000 -4.6840E+04  0.0000E+00  1.5620E+03 -5.1110E+04  5.2672E+04  0.0000E+00  0.0000E+00  0.0000E+00  0.0000E+00
        0.028  1.1482E+04  0.0000E+00  0.0000E+00  0.0000E+00  9.0000E+01  9.0000E+01  9.0000E+01  0.0000E+00 -7.7161E-02

      rolling  0.0000E+00  0.0000E+00  0.0000E+00  0.0000E+00  0.0000E+00  0.0000E+00  0.0000E+00  0.0000E+00  0.0000E+00
     averages  0.0000E+00  0.0000E+00  0.0000E+00  0.0000E+00  0.0000E+00  0.0000E+00  0.0000E+00  0.0000E+00  0.0000E+00
               0.0000E+00  0.0000E+00  0.0000E+00  0.0000E+00  0.0000E+00  0.0000E+00  0.0000E+00  0.0000E+00  0.0000E+00
----------------------------------------------------------------------------------------------------------------------------------
run terminating... elapsed  cpu time:        0.028 sec, job time:    10000.000 sec, close time:       10.000 sec

dry run terminated
pressure tensor  (katms):
    5.9269E-04 -5.4284E-02  4.0545E-02
   -5.4284E-02 -1.4132E-01  1.0971E-01
    4.0545E-02  1.0971E-01 -9.0761E-02
  trace/3   -7.7161E-02
time elapsed since job start:        0.040 sec
 +----------------------------+----------+----------+------------+------------+------------+------------+------------+------------+------------+
 |            Name            | Process  |  Calls   |  Call Min  |  Call Max  |  Call Ave  |  Tot Min   |   Tot Max  |   Tot Ave  |      %     |
 | |v      Main               | All      |        1 |  4.000E-02 |  4.000E-02 |  4.000E-02 |  4.000E-02 |  4.000E-02 |  4.000E-02 |  1.000E+02 |
 |  |-     Initialisation     | All      |        1 |  1.400E-02 |  1.400E-02 |  1.400E-02 |  1.400E-02 |  1.400E-02 |  1.400E-02 |  3.500E+01 |
 |  |v     Main Calc          | All      |        1 |  1.200E-02 |  1.200E-02 |  1.200E-02 |  1.200E-02 |  1.200E-02 |  1.200E-02 |  3.000E+01 |
 |   |-    Linked Cells       | All      |        1 |  3.000E-03 |  3.000E-03 |  3.000E-03 |  3.000E-03 |  3.000E-03 |  3.000E-03 |  7.500E+00 |
 |   |-    Bonded Forces      | All      |        1 |  0.000E+00 |  0.000E+00 |  0.000E+00 |  0.000E+00 |  0.000E+00 |  0.000E+00 |  0.000E+00 |
 |   |-    Two-Body Init      | All      |        1 |  0.000E+00 |  0.000E+00 |  0.000E+00 |  0.000E+00 |  0.000E+00 |  0.000E+00 |  0.000E+00 |
 |   |-    Long Range         | All      |        1 |  3.000E-03 |  3.000E-03 |  3.000E-03 |  3.000E-03 |  3.000E-03 |  3.000E-03 |  7.500E+00 |
 |   |-    Short Range        | All      |        1 |  5.000E-03 |  5.000E-03 |  5.000E-03 |  5.000E-03 |  5.000E-03 |  5.000E-03 |  1.250E+01 |
 |   |-    Two-Body Final     | All      |        1 |  0.000E+00 |  0.000E+00 |  0.000E+00 |  0.000E+00 |  0.000E+00 |  0.000E+00 |  0.000E+00 |
 |  |-     Termination        | All      |        1 |  1.200E-02 |  1.200E-02 |  1.200E-02 |  1.200E-02 |  1.200E-02 |  1.200E-02 |  3.000E+01 |
 | ------- Untimed            | All      |        0 |  0.000E+00 |  0.000E+00 |  0.000E+00 |  0.000E+00 |  0.000E+00 |  2.000E-03 |  5.000E+00 |
 +----------------------------+----------+----------+------------+------------+------------+------------+------------+------------+------------+



******************************************************************
**** Thank you for using the DL_POLY_4 package in your work.  ****
**** Please, acknowledge our efforts by including the         ****
**** following references when publishing data obtained using ****
**** DL_POLY_4:                                               ****
****   - I.T. Todorov, W. Smith, K. Trachenko & M.T. Dove,    ****
****     J. Mater. Chem., 16, 1911-1918 (2006),               ****
****     https://doi.org/10.1039/B517931A                     ****
****   - I.J. Bush, I.T. Todorov & W. Smith,                  ****
****     Comp. Phys. Commun., 175, 323-329 (2006),            ****
****     https://doi.org/10.1016/j.cpc.2006.05.001            ****
******************************************************************
