lmp/Ar.lmp (written by ASE) 

864 	 atoms 
1  atom types
0.0      31.559999999999999  xlo xhi
0.0      31.559999999999999  ylo yhi
0.0      31.559999999999999  zlo zhi

Masses 

1 39.948

Atoms 

     1   1                       0                       0                       0
     2   1      2.6300000000000003      2.6300000000000003                       0
     3   1      2.6300000000000003                       0      2.6300000000000003
     4   1                       0      2.6300000000000003      2.6300000000000003
     5   1      5.2600000000000007                       0                       0
     6   1      7.8899999999999997      2.6300000000000003                       0
     7   1      7.8899999999999997                       0      2.6300000000000003
     8   1      5.2600000000000007      2.6300000000000003      2.6300000000000003
     9   1      10.520000000000001                       0                       0
    10   1      13.149999999999999      2.6300000000000003                       0
    11   1      13.149999999999999                       0      2.6300000000000003
    12   1      10.520000000000001      2.6300000000000003      2.6300000000000003
    13   1      15.779999999999999                       0                       0
    14   1                   18.41      2.6300000000000003                       0
    15   1                   18.41                       0      2.6300000000000003
    16   1      15.779999999999999      2.6300000000000003      2.6300000000000003
    17   1      21.040000000000003                       0                       0
    18   1      23.669999999999998      2.6300000000000003                       0
    19   1      23.669999999999998                       0      2.6300000000000003
    20   1      21.040000000000003      2.6300000000000003      2.6300000000000003
    21   1      26.299999999999997                       0                       0
    22   1      28.929999999999996      2.6300000000000003                       0
    23   1      28.929999999999996                       0      2.6300000000000003
    24   1      26.299999999999997      2.6300000000000003      2.6300000000000003
    25   1                       0      5.2600000000000007                       0
    26   1      2.6300000000000003      7.8899999999999997                       0
    27   1      2.6300000000000003      5.2600000000000007      2.6300000000000003
    28   1                       0      7.8899999999999997      2.6300000000000003
    29   1      5.2600000000000007      5.2600000000000007                       0
    30   1      7.8899999999999997      7.8899999999999997                       0
    31   1      7.8899999999999997      5.2600000000000007      2.6300000000000003
    32   1      5.2600000000000007      7.8899999999999997      2.6300000000000003
    33   1      10.520000000000001      5.2600000000000007                       0
    34   1      13.149999999999999      7.8899999999999997                       0
    35   1      13.149999999999999      5.2600000000000007      2.6300000000000003
    36   1      10.520000000000001      7.8899999999999997      2.6300000000000003
    37   1      15.779999999999999      5.2600000000000007                       0
    38   1                   18.41      7.8899999999999997                       0
    39   1                   18.41      5.2600000000000007      2.6300000000000003
    40   1      15.779999999999999      7.8899999999999997      2.6300000000000003
    41   1      21.040000000000003      5.2600000000000007                       0
    42   1      23.669999999999998      7.8899999999999997                       0
    43   1      23.669999999999998      5.2600000000000007      2.6300000000000003
    44   1      21.040000000000003      7.8899999999999997      2.6300000000000003
    45   1      26.299999999999997      5.2600000000000007                       0
    46   1      28.929999999999996      7.8899999999999997                       0
    47   1      28.929999999999996      5.2600000000000007      2.6300000000000003
    48   1      26.299999999999997      7.8899999999999997      2.6300000000000003
    49   1                       0      10.520000000000001                       0
    50   1      2.6300000000000003      13.149999999999999                       0
    51   1      2.6300000000000003      10.520000000000001      2.6300000000000003
    52   1                       0      13.149999999999999      2.6300000000000003
    53   1      5.2600000000000007      10.520000000000001                       0
    54   1      7.8899999999999997      13.149999999999999                       0
    55   1      7.8899999999999997      10.520000000000001      2.6300000000000003
    56   1      5.2600000000000007      13.149999999999999      2.6300000000000003
    57   1      10.520000000000001      10.520000000000001                       0
    58   1      13.149999999999999      13.149999999999999                       0
    59   1      13.149999999999999      10.520000000000001      2.6300000000000003
    60   1      10.520000000000001      13.149999999999999      2.6300000000000003
    61   1      15.779999999999999      10.520000000000001                       0
    62   1                   18.41      13.149999999999999                       0
    63   1                   18.41      10.520000000000001      2.6300000000000003
    64   1      15.779999999999999      13.149999999999999      2.6300000000000003
    65   1      21.040000000000003      10.520000000000001                       0
    66   1      23.669999999999998      13.149999999999999                       0
    67   1      23.669999999999998      10.520000000000001      2.6300000000000003
    68   1      21.040000000000003      13.149999999999999      2.6300000000000003
    69   1      26.299999999999997      10.520000000000001                       0
    70   1      28.929999999999996      13.149999999999999                       0
    71   1      28.929999999999996      10.520000000000001      2.6300000000000003
    72   1      26.299999999999997      13.149999999999999      2.6300000000000003
    73   1                       0      15.779999999999999                       0
    74   1      2.6300000000000003                   18.41                       0
    75   1      2.6300000000000003      15.779999999999999      2.6300000000000003
    76   1                       0                   18.41      2.6300000000000003
    77   1      5.2600000000000007      15.779999999999999                       0
    78   1      7.8899999999999997                   18.41                       0
    79   1      7.8899999999999997      15.779999999999999      2.6300000000000003
    80   1      5.2600000000000007                   18.41      2.6300000000000003
    81   1      10.520000000000001      15.779999999999999                       0
    82   1      13.149999999999999                   18.41                       0
    83   1      13.149999999999999      15.779999999999999      2.6300000000000003
    84   1      10.520000000000001                   18.41      2.6300000000000003
    85   1      15.779999999999999      15.779999999999999                       0
    86   1                   18.41                   18.41                       0
    87   1                   18.41      15.779999999999999      2.6300000000000003
    88   1      15.779999999999999                   18.41      2.6300000000000003
    89   1      21.040000000000003      15.779999999999999                       0
    90   1      23.669999999999998                   18.41                       0
    91   1      23.669999999999998      15.779999999999999      2.6300000000000003
    92   1      21.040000000000003                   18.41      2.6300000000000003
    93   1      26.299999999999997      15.779999999999999                       0
    94   1      28.929999999999996                   18.41                       0
    95   1      28.929999999999996      15.779999999999999      2.6300000000000003
    96   1      26.299999999999997                   18.41      2.6300000000000003
    97   1                       0      21.040000000000003                       0
    98   1      2.6300000000000003      23.669999999999998                       0
    99   1      2.6300000000000003      21.040000000000003      2.6300000000000003
   100   1                       0      23.669999999999998      2.6300000000000003
   101   1      5.2600000000000007      21.040000000000003                       0
   102   1      7.8899999999999997      23.669999999999998                       0
   103   1      7.8899999999999997      21.040000000000003      2.6300000000000003
   104   1      5.2600000000000007      23.669999999999998      2.6300000000000003
   105   1      10.520000000000001      21.040000000000003                       0
   106   1      13.149999999999999      23.669999999999998                       0
   107   1      13.149999999999999      21.040000000000003      2.6300000000000003
   108   1      10.520000000000001      23.669999999999998      2.6300000000000003
   109   1      15.779999999999999      21.040000000000003                       0
   110   1                   18.41      23.669999999999998                       0
   111   1                   18.41      21.040000000000003      2.6300000000000003
   112   1      15.779999999999999      23.669999999999998      2.6300000000000003
   113   1      21.040000000000003      21.040000000000003                       0
   114   1      23.669999999999998      23.669999999999998                       0
   115   1      23.669999999999998      21.040000000000003      2.6300000000000003
   116   1      21.040000000000003      23.669999999999998      2.6300000000000003
   117   1      26.299999999999997      21.040000000000003                       0
   118   1      28.929999999999996      23.669999999999998                       0
   119   1      28.929999999999996      21.040000000000003      2.6300000000000003
   120   1      26.299999999999997      23.669999999999998      2.6300000000000003
   121   1                       0      26.299999999999997                       0
   122   1      2.6300000000000003      28.929999999999996                       0
   123   1      2.6300000000000003      26.299999999999997      2.6300000000000003
   124   1                       0      28.929999999999996      2.6300000000000003
   125   1      5.2600000000000007      26.299999999999997                       0
   126   1      7.8899999999999997      28.929999999999996                       0
   127   1      7.8899999999999997      26.299999999999997      2.6300000000000003
   128   1      5.2600000000000007      28.929999999999996      2.6300000000000003
   129   1      10.520000000000001      26.299999999999997                       0
   130   1      13.149999999999999      28.929999999999996                       0
   131   1      13.149999999999999      26.299999999999997      2.6300000000000003
   132   1      10.520000000000001      28.929999999999996      2.6300000000000003
   133   1      15.779999999999999      26.299999999999997                       0
   134   1                   18.41      28.929999999999996                       0
   135   1                   18.41      26.299999999999997      2.6300000000000003
   136   1      15.779999999999999      28.929999999999996      2.6300000000000003
   137   1      21.040000000000003      26.299999999999997                       0
   138   1      23.669999999999998      28.929999999999996                       0
   139   1      23.669999999999998      26.299999999999997      2.6300000000000003
   140   1      21.040000000000003      28.929999999999996      2.6300000000000003
   141   1      26.299999999999997      26.299999999999997                       0
   142   1      28.929999999999996      28.929999999999996                       0
   143   1      28.929999999999996      26.299999999999997      2.6300000000000003
   144   1      26.299999999999997      28.929999999999996      2.6300000000000003
   145   1                       0                       0      5.2600000000000007
   146   1      2.6300000000000003      2.6300000000000003      5.2600000000000007
   147   1      2.6300000000000003                       0      7.8899999999999997
   148   1                       0      2.6300000000000003      7.8899999999999997
   149   1      5.2600000000000007                       0      5.2600000000000007
   150   1      7.8899999999999997      2.6300000000000003      5.2600000000000007
   151   1      7.8899999999999997                       0      7.8899999999999997
   152   1      5.2600000000000007      2.6300000000000003      7.8899999999999997
   153   1      10.520000000000001                       0      5.2600000000000007
   154   1      13.149999999999999      2.6300000000000003      5.2600000000000007
   155   1      13.149999999999999                       0      7.8899999999999997
   156   1      10.520000000000001      2.6300000000000003      7.8899999999999997
   157   1      15.779999999999999                       0      5.2600000000000007
   158   1                   18.41      2.6300000000000003      5.2600000000000007
   159   1                   18.41                       0      7.8899999999999997
   160   1      15.779999999999999      2.6300000000000003      7.8899999999999997
   161   1      21.040000000000003                       0      5.2600000000000007
   162   1      23.669999999999998      2.6300000000000003      5.2600000000000007
   163   1      23.669999999999998                       0      7.8899999999999997
   164   1      21.040000000000003      2.6300000000000003      7.8899999999999997
   165   1      26.299999999999997                       0      5.2600000000000007
   166   1      28.929999999999996      2.6300000000000003      5.2600000000000007
   167   1      28.929999999999996                       0      7.8899999999999997
   168   1      26.299999999999997      2.6300000000000003      7.8899999999999997
   169   1                       0      5.2600000000000007      5.2600000000000007
   170   1      2.6300000000000003      7.8899999999999997      5.2600000000000007
   171   1      2.6300000000000003      5.2600000000000007      7.8899999999999997
   172   1                       0      7.8899999999999997      7.8899999999999997
   173   1      5.2600000000000007      5.2600000000000007      5.2600000000000007
   174   1      7.8899999999999997      7.8899999999999997      5.2600000000000007
   175   1      7.8899999999999997      5.2600000000000007      7.8899999999999997
   176   1      5.2600000000000007      7.8899999999999997      7.8899999999999997
   177   1      10.520000000000001      5.2600000000000007      5.2600000000000007
   178   1      13.149999999999999      7.8899999999999997      5.2600000000000007
   179   1      13.149999999999999      5.2600000000000007      7.8899999999999997
   180   1      10.520000000000001      7.8899999999999997      7.8899999999999997
   181   1      15.779999999999999      5.2600000000000007      5.2600000000000007
   182   1                   18.41      7.8899999999999997      5.2600000000000007
   183   1                   18.41      5.2600000000000007      7.8899999999999997
   184   1      15.779999999999999      7.8899999999999997      7.8899999999999997
   185   1      21.040000000000003      5.2600000000000007      5.2600000000000007
   186   1      23.669999999999998      7.8899999999999997      5.2600000000000007
   187   1      23.669999999999998      5.2600000000000007      7.8899999999999997
   188   1      21.040000000000003      7.8899999999999997      7.8899999999999997
   189   1      26.299999999999997      5.2600000000000007      5.2600000000000007
   190   1      28.929999999999996      7.8899999999999997      5.2600000000000007
   191   1      28.929999999999996      5.2600000000000007      7.8899999999999997
   192   1      26.299999999999997      7.8899999999999997      7.8899999999999997
   193   1                       0      10.520000000000001      5.2600000000000007
   194   1      2.6300000000000003      13.149999999999999      5.2600000000000007
   195   1      2.6300000000000003      10.520000000000001      7.8899999999999997
   196   1                       0      13.149999999999999      7.8899999999999997
   197   1      5.2600000000000007      10.520000000000001      5.2600000000000007
   198   1      7.8899999999999997      13.149999999999999      5.2600000000000007
   199   1      7.8899999999999997      10.520000000000001      7.8899999999999997
   200   1      5.2600000000000007      13.149999999999999      7.8899999999999997
   201   1      10.520000000000001      10.520000000000001      5.2600000000000007
   202   1      13.149999999999999      13.149999999999999      5.2600000000000007
   203   1      13.149999999999999      10.520000000000001      7.8899999999999997
   204   1      10.520000000000001      13.149999999999999      7.8899999999999997
   205   1      15.779999999999999      10.520000000000001      5.2600000000000007
   206   1                   18.41      13.149999999999999      5.2600000000000007
   207   1                   18.41      10.520000000000001      7.8899999999999997
   208   1      15.779999999999999      13.149999999999999      7.8899999999999997
   209   1      21.040000000000003      10.520000000000001      5.2600000000000007
   210   1      23.669999999999998      13.149999999999999      5.2600000000000007
   211   1      23.669999999999998      10.520000000000001      7.8899999999999997
   212   1      21.040000000000003      13.149999999999999      7.8899999999999997
   213   1      26.299999999999997      10.520000000000001      5.2600000000000007
   214   1      28.929999999999996      13.149999999999999      5.2600000000000007
   215   1      28.929999999999996      10.520000000000001      7.8899999999999997
   216   1      26.299999999999997      13.149999999999999      7.8899999999999997
   217   1                       0      15.779999999999999      5.2600000000000007
   218   1      2.6300000000000003                   18.41      5.2600000000000007
   219   1      2.6300000000000003      15.779999999999999      7.8899999999999997
   220   1                       0                   18.41      7.8899999999999997
   221   1      5.2600000000000007      15.779999999999999      5.2600000000000007
   222   1      7.8899999999999997                   18.41      5.2600000000000007
   223   1      7.8899999999999997      15.779999999999999      7.8899999999999997
   224   1      5.2600000000000007                   18.41      7.8899999999999997
   225   1      10.520000000000001      15.779999999999999      5.2600000000000007
   226   1      13.149999999999999                   18.41      5.2600000000000007
   227   1      13.149999999999999      15.779999999999999      7.8899999999999997
   228   1      10.520000000000001                   18.41      7.8899999999999997
   229   1      15.779999999999999      15.779999999999999      5.2600000000000007
   230   1                   18.41                   18.41      5.2600000000000007
   231   1                   18.41      15.779999999999999      7.8899999999999997
   232   1      15.779999999999999                   18.41      7.8899999999999997
   233   1      21.040000000000003      15.779999999999999      5.2600000000000007
   234   1      23.669999999999998                   18.41      5.2600000000000007
   235   1      23.669999999999998      15.779999999999999      7.8899999999999997
   236   1      21.040000000000003                   18.41      7.8899999999999997
   237   1      26.299999999999997      15.779999999999999      5.2600000000000007
   238   1      28.929999999999996                   18.41      5.2600000000000007
   239   1      28.929999999999996      15.779999999999999      7.8899999999999997
   240   1      26.299999999999997                   18.41      7.8899999999999997
   241   1                       0      21.040000000000003      5.2600000000000007
   242   1      2.6300000000000003      23.669999999999998      5.2600000000000007
   243   1      2.6300000000000003      21.040000000000003      7.8899999999999997
   244   1                       0      23.669999999999998      7.8899999999999997
   245   1      5.2600000000000007      21.040000000000003      5.2600000000000007
   246   1      7.8899999999999997      23.669999999999998      5.2600000000000007
   247   1      7.8899999999999997      21.040000000000003      7.8899999999999997
   248   1      5.2600000000000007      23.669999999999998      7.8899999999999997
   249   1      10.520000000000001      21.040000000000003      5.2600000000000007
   250   1      13.149999999999999      23.669999999999998      5.2600000000000007
   251   1      13.149999999999999      21.040000000000003      7.8899999999999997
   252   1      10.520000000000001      23.669999999999998      7.8899999999999997
   253   1      15.779999999999999      21.040000000000003      5.2600000000000007
   254   1                   18.41      23.669999999999998      5.2600000000000007
   255   1                   18.41      21.040000000000003      7.8899999999999997
   256   1      15.779999999999999      23.669999999999998      7.8899999999999997
   257   1      21.040000000000003      21.040000000000003      5.2600000000000007
   258   1      23.669999999999998      23.669999999999998      5.2600000000000007
   259   1      23.669999999999998      21.040000000000003      7.8899999999999997
   260   1      21.040000000000003      23.669999999999998      7.8899999999999997
   261   1      26.299999999999997      21.040000000000003      5.2600000000000007
   262   1      28.929999999999996      23.669999999999998      5.2600000000000007
   263   1      28.929999999999996      21.040000000000003      7.8899999999999997
   264   1      26.299999999999997      23.669999999999998      7.8899999999999997
   265   1                       0      26.299999999999997      5.2600000000000007
   266   1      2.6300000000000003      28.929999999999996      5.2600000000000007
   267   1      2.6300000000000003      26.299999999999997      7.8899999999999997
   268   1                       0      28.929999999999996      7.8899999999999997
   269   1      5.2600000000000007      26.299999999999997      5.2600000000000007
   270   1      7.8899999999999997      28.929999999999996      5.2600000000000007
   271   1      7.8899999999999997      26.299999999999997      7.8899999999999997
   272   1      5.2600000000000007      28.929999999999996      7.8899999999999997
   273   1      10.520000000000001      26.299999999999997      5.2600000000000007
   274   1      13.149999999999999      28.929999999999996      5.2600000000000007
   275   1      13.149999999999999      26.299999999999997      7.8899999999999997
   276   1      10.520000000000001      28.929999999999996      7.8899999999999997
   277   1      15.779999999999999      26.299999999999997      5.2600000000000007
   278   1                   18.41      28.929999999999996      5.2600000000000007
   279   1                   18.41      26.299999999999997      7.8899999999999997
   280   1      15.779999999999999      28.929999999999996      7.8899999999999997
   281   1      21.040000000000003      26.299999999999997      5.2600000000000007
   282   1      23.669999999999998      28.929999999999996      5.2600000000000007
   283   1      23.669999999999998      26.299999999999997      7.8899999999999997
   284   1      21.040000000000003      28.929999999999996      7.8899999999999997
   285   1      26.299999999999997      26.299999999999997      5.2600000000000007
   286   1      28.929999999999996      28.929999999999996      5.2600000000000007
   287   1      28.929999999999996      26.299999999999997      7.8899999999999997
   288   1      26.299999999999997      28.929999999999996      7.8899999999999997
   289   1                       0                       0      10.520000000000001
   290   1      2.6300000000000003      2.6300000000000003      10.520000000000001
   291   1      2.6300000000000003                       0      13.149999999999999
   292   1                       0      2.6300000000000003      13.149999999999999
   293   1      5.2600000000000007                       0      10.520000000000001
   294   1      7.8899999999999997      2.6300000000000003      10.520000000000001
   295   1      7.8899999999999997                       0      13.149999999999999
   296   1      5.2600000000000007      2.6300000000000003      13.149999999999999
   297   1      10.520000000000001                       0      10.520000000000001
   298   1      13.149999999999999      2.6300000000000003      10.520000000000001
   299   1      13.149999999999999                       0      13.149999999999999
   300   1      10.520000000000001      2.6300000000000003      13.149999999999999
   301   1      15.779999999999999                       0      10.520000000000001
   302   1                   18.41      2.6300000000000003      10.520000000000001
   303   1                   18.41                       0      13.149999999999999
   304   1      15.779999999999999      2.6300000000000003      13.149999999999999
   305   1      21.040000000000003                       0      10.520000000000001
   306   1      23.669999999999998      2.6300000000000003      10.520000000000001
   307   1      23.669999999999998                       0      13.149999999999999
   308   1      21.040000000000003      2.6300000000000003      13.149999999999999
   309   1      26.299999999999997                       0      10.520000000000001
   310   1      28.929999999999996      2.6300000000000003      10.520000000000001
   311   1      28.929999999999996                       0      13.149999999999999
   312   1      26.299999999999997      2.6300000000000003      13.149999999999999
   313   1                       0      5.2600000000000007      10.520000000000001
   314   1      2.6300000000000003      7.8899999999999997      10.520000000000001
   315   1      2.6300000000000003      5.2600000000000007      13.149999999999999
   316   1                       0      7.8899999999999997      13.149999999999999
   317   1      5.2600000000000007      5.2600000000000007      10.520000000000001
   318   1      7.8899999999999997      7.8899999999999997      10.520000000000001
   319   1      7.8899999999999997      5.2600000000000007      13.149999999999999
   320   1      5.2600000000000007      7.8899999999999997      13.149999999999999
   321   1      10.520000000000001      5.2600000000000007      10.520000000000001
   322   1      13.149999999999999      7.8899999999999997      10.520000000000001
   323   1      13.149999999999999      5.2600000000000007      13.149999999999999
   324   1      10.520000000000001      7.8899999999999997      13.149999999999999
   325   1      15.779999999999999      5.2600000000000007      10.520000000000001
   326   1                   18.41      7.8899999999999997      10.520000000000001
   327   1                   18.41      5.2600000000000007      13.149999999999999
   328   1      15.779999999999999      7.8899999999999997      13.149999999999999
   329   1      21.040000000000003      5.2600000000000007      10.520000000000001
   330   1      23.669999999999998      7.8899999999999997      10.520000000000001
   331   1      23.669999999999998      5.2600000000000007      13.149999999999999
   332   1      21.040000000000003      7.8899999999999997      13.149999999999999
   333   1      26.299999999999997      5.2600000000000007      10.520000000000001
   334   1      28.929999999999996      7.8899999999999997      10.520000000000001
   335   1      28.929999999999996      5.2600000000000007      13.149999999999999
   336   1      26.299999999999997      7.8899999999999997      13.149999999999999
   337   1                       0      10.520000000000001      10.520000000000001
   338   1      2.6300000000000003      13.149999999999999      10.520000000000001
   339   1      2.6300000000000003      10.520000000000001      13.149999999999999
   340   1                       0      13.149999999999999      13.149999999999999
   341   1      5.2600000000000007      10.520000000000001      10.520000000000001
   342   1      7.8899999999999997      13.149999999999999      10.520000000000001
   343   1      7.8899999999999997      10.520000000000001      13.149999999999999
   344   1      5.2600000000000007      13.149999999999999      13.149999999999999
   345   1      10.520000000000001      10.520000000000001      10.520000000000001
   346   1      13.149999999999999      13.149999999999999      10.520000000000001
   347   1      13.149999999999999      10.520000000000001      13.149999999999999
   348   1      10.520000000000001      13.149999999999999      13.149999999999999
   349   1      15.779999999999999      10.520000000000001      10.520000000000001
   350   1                   18.41      13.149999999999999      10.520000000000001
   351   1                   18.41      10.520000000000001      13.149999999999999
   352   1      15.779999999999999      13.149999999999999      13.149999999999999
   353   1      21.040000000000003      10.520000000000001      10.520000000000001
   354   1      23.669999999999998      13.149999999999999      10.520000000000001
   355   1      23.669999999999998      10.520000000000001      13.149999999999999
   356   1      21.040000000000003      13.149999999999999      13.149999999999999
   357   1      26.299999999999997      10.520000000000001      10.520000000000001
   358   1      28.929999999999996      13.149999999999999      10.520000000000001
   359   1      28.929999999999996      10.520000000000001      13.149999999999999